<?xml version="1.0"?>
<VTKFile type="UnstructuredGrid" version="0.1" byte_order="LittleEndian" header_type="UInt32">
  <UnstructuredGrid>
    <Piece NumberOfPoints="1254" NumberOfCells="2325">
      <PointData>
        <DataArray type="UInt64" Name="bulk_node_ids" format="ascii" RangeMin="11286" RangeMax="12539">
          11286 11287 11288 11289 11290 11291
          11292 11293 11294 11295 11296 11297
          11298 11299 11300 11301 11302 11303
          11304 11305 11306 11307 11308 11309
          11310 11311 11312 11313 11314 11315
          11316 11317 11318 11319 11320 11321
          11322 11323 11324 11325 11326 11327
          11328 11329 11330 11331 11332 11333
          11334 11335 11336 11337 11338 11339
          11340 11341 11342 11343 11344 11345
          11346 11347 11348 11349 11350 11351
          11352 11353 11354 11355 11356 11357
          11358 11359 11360 11361 11362 11363
          11364 11365 11366 11367 11368 11369
          11370 11371 11372 11373 11374 11375
          11376 11377 11378 11379 11380 11381
          11382 11383 11384 11385 11386 11387
          11388 11389 11390 11391 11392 11393
          11394 11395 11396 11397 11398 11399
          11400 11401 11402 11403 11404 11405
          11406 11407 11408 11409 11410 11411
          11412 11413 11414 11415 11416 11417
          11418 11419 11420 11421 11422 11423
          11424 11425 11426 11427 11428 11429
          11430 11431 11432 11433 11434 11435
          11436 11437 11438 11439 11440 11441
          11442 11443 11444 11445 11446 11447
          11448 11449 11450 11451 11452 11453
          11454 11455 11456 11457 11458 11459
          11460 11461 11462 11463 11464 11465
          11466 11467 11468 11469 11470 11471
          11472 11473 11474 11475 11476 11477
          11478 11479 11480 11481 11482 11483
          11484 11485 11486 11487 11488 11489
          11490 11491 11492 11493 11494 11495
          11496 11497 11498 11499 11500 11501
          11502 11503 11504 11505 11506 11507
          11508 11509 11510 11511 11512 11513
          11514 11515 11516 11517 11518 11519
          11520 11521 11522 11523 11524 11525
          11526 11527 11528 11529 11530 11531
          11532 11533 11534 11535 11536 11537
          11538 11539 11540 11541 11542 11543
          11544 11545 11546 11547 11548 11549
          11550 11551 11552 11553 11554 11555
          11556 11557 11558 11559 11560 11561
          11562 11563 11564 11565 11566 11567
          11568 11569 11570 11571 11572 11573
          11574 11575 11576 11577 11578 11579
          11580 11581 11582 11583 11584 11585
          11586 11587 11588 11589 11590 11591
          11592 11593 11594 11595 11596 11597
          11598 11599 11600 11601 11602 11603
          11604 11605 11606 11607 11608 11609
          11610 11611 11612 11613 11614 11615
          11616 11617 11618 11619 11620 11621
          11622 11623 11624 11625 11626 11627
          11628 11629 11630 11631 11632 11633
          11634 11635 11636 11637 11638 11639
          11640 11641 11642 11643 11644 11645
          11646 11647 11648 11649 11650 11651
          11652 11653 11654 11655 11656 11657
          11658 11659 11660 11661 11662 11663
          11664 11665 11666 11667 11668 11669
          11670 11671 11672 11673 11674 11675
          11676 11677 11678 11679 11680 11681
          11682 11683 11684 11685 11686 11687
          11688 11689 11690 11691 11692 11693
          11694 11695 11696 11697 11698 11699
          11700 11701 11702 11703 11704 11705
          11706 11707 11708 11709 11710 11711
          11712 11713 11714 11715 11716 11717
          11718 11719 11720 11721 11722 11723
          11724 11725 11726 11727 11728 11729
          11730 11731 11732 11733 11734 11735
          11736 11737 11738 11739 11740 11741
          11742 11743 11744 11745 11746 11747
          11748 11749 11750 11751 11752 11753
          11754 11755 11756 11757 11758 11759
          11760 11761 11762 11763 11764 11765
          11766 11767 11768 11769 11770 11771
          11772 11773 11774 11775 11776 11777
          11778 11779 11780 11781 11782 11783
          11784 11785 11786 11787 11788 11789
          11790 11791 11792 11793 11794 11795
          11796 11797 11798 11799 11800 11801
          11802 11803 11804 11805 11806 11807
          11808 11809 11810 11811 11812 11813
          11814 11815 11816 11817 11818 11819
          11820 11821 11822 11823 11824 11825
          11826 11827 11828 11829 11830 11831
          11832 11833 11834 11835 11836 11837
          11838 11839 11840 11841 11842 11843
          11844 11845 11846 11847 11848 11849
          11850 11851 11852 11853 11854 11855
          11856 11857 11858 11859 11860 11861
          11862 11863 11864 11865 11866 11867
          11868 11869 11870 11871 11872 11873
          11874 11875 11876 11877 11878 11879
          11880 11881 11882 11883 11884 11885
          11886 11887 11888 11889 11890 11891
          11892 11893 11894 11895 11896 11897
          11898 11899 11900 11901 11902 11903
          11904 11905 11906 11907 11908 11909
          11910 11911 11912 11913 11914 11915
          11916 11917 11918 11919 11920 11921
          11922 11923 11924 11925 11926 11927
          11928 11929 11930 11931 11932 11933
          11934 11935 11936 11937 11938 11939
          11940 11941 11942 11943 11944 11945
          11946 11947 11948 11949 11950 11951
          11952 11953 11954 11955 11956 11957
          11958 11959 11960 11961 11962 11963
          11964 11965 11966 11967 11968 11969
          11970 11971 11972 11973 11974 11975
          11976 11977 11978 11979 11980 11981
          11982 11983 11984 11985 11986 11987
          11988 11989 11990 11991 11992 11993
          11994 11995 11996 11997 11998 11999
          12000 12001 12002 12003 12004 12005
          12006 12007 12008 12009 12010 12011
          12012 12013 12014 12015 12016 12017
          12018 12019 12020 12021 12022 12023
          12024 12025 12026 12027 12028 12029
          12030 12031 12032 12033 12034 12035
          12036 12037 12038 12039 12040 12041
          12042 12043 12044 12045 12046 12047
          12048 12049 12050 12051 12052 12053
          12054 12055 12056 12057 12058 12059
          12060 12061 12062 12063 12064 12065
          12066 12067 12068 12069 12070 12071
          12072 12073 12074 12075 12076 12077
          12078 12079 12080 12081 12082 12083
          12084 12085 12086 12087 12088 12089
          12090 12091 12092 12093 12094 12095
          12096 12097 12098 12099 12100 12101
          12102 12103 12104 12105 12106 12107
          12108 12109 12110 12111 12112 12113
          12114 12115 12116 12117 12118 12119
          12120 12121 12122 12123 12124 12125
          12126 12127 12128 12129 12130 12131
          12132 12133 12134 12135 12136 12137
          12138 12139 12140 12141 12142 12143
          12144 12145 12146 12147 12148 12149
          12150 12151 12152 12153 12154 12155
          12156 12157 12158 12159 12160 12161
          12162 12163 12164 12165 12166 12167
          12168 12169 12170 12171 12172 12173
          12174 12175 12176 12177 12178 12179
          12180 12181 12182 12183 12184 12185
          12186 12187 12188 12189 12190 12191
          12192 12193 12194 12195 12196 12197
          12198 12199 12200 12201 12202 12203
          12204 12205 12206 12207 12208 12209
          12210 12211 12212 12213 12214 12215
          12216 12217 12218 12219 12220 12221
          12222 12223 12224 12225 12226 12227
          12228 12229 12230 12231 12232 12233
          12234 12235 12236 12237 12238 12239
          12240 12241 12242 12243 12244 12245
          12246 12247 12248 12249 12250 12251
          12252 12253 12254 12255 12256 12257
          12258 12259 12260 12261 12262 12263
          12264 12265 12266 12267 12268 12269
          12270 12271 12272 12273 12274 12275
          12276 12277 12278 12279 12280 12281
          12282 12283 12284 12285 12286 12287
          12288 12289 12290 12291 12292 12293
          12294 12295 12296 12297 12298 12299
          12300 12301 12302 12303 12304 12305
          12306 12307 12308 12309 12310 12311
          12312 12313 12314 12315 12316 12317
          12318 12319 12320 12321 12322 12323
          12324 12325 12326 12327 12328 12329
          12330 12331 12332 12333 12334 12335
          12336 12337 12338 12339 12340 12341
          12342 12343 12344 12345 12346 12347
          12348 12349 12350 12351 12352 12353
          12354 12355 12356 12357 12358 12359
          12360 12361 12362 12363 12364 12365
          12366 12367 12368 12369 12370 12371
          12372 12373 12374 12375 12376 12377
          12378 12379 12380 12381 12382 12383
          12384 12385 12386 12387 12388 12389
          12390 12391 12392 12393 12394 12395
          12396 12397 12398 12399 12400 12401
          12402 12403 12404 12405 12406 12407
          12408 12409 12410 12411 12412 12413
          12414 12415 12416 12417 12418 12419
          12420 12421 12422 12423 12424 12425
          12426 12427 12428 12429 12430 12431
          12432 12433 12434 12435 12436 12437
          12438 12439 12440 12441 12442 12443
          12444 12445 12446 12447 12448 12449
          12450 12451 12452 12453 12454 12455
          12456 12457 12458 12459 12460 12461
          12462 12463 12464 12465 12466 12467
          12468 12469 12470 12471 12472 12473
          12474 12475 12476 12477 12478 12479
          12480 12481 12482 12483 12484 12485
          12486 12487 12488 12489 12490 12491
          12492 12493 12494 12495 12496 12497
          12498 12499 12500 12501 12502 12503
          12504 12505 12506 12507 12508 12509
          12510 12511 12512 12513 12514 12515
          12516 12517 12518 12519 12520 12521
          12522 12523 12524 12525 12526 12527
          12528 12529 12530 12531 12532 12533
          12534 12535 12536 12537 12538 12539
        </DataArray>
      </PointData>
      <CellData>
        <DataArray type="Int32" Name="MaterialIDs" format="ascii" RangeMin="8" RangeMax="8">
          8 8 8 8 8 8
          8 8 8 8 8 8
          8 8 8 8 8 8
          8 8 8 8 8 8
          8 8 8 8 8 8
          8 8 8 8 8 8
          8 8 8 8 8 8
          8 8 8 8 8 8
          8 8 8 8 8 8
          8 8 8 8 8 8
          8 8 8 8 8 8
          8 8 8 8 8 8
          8 8 8 8 8 8
          8 8 8 8 8 8
          8 8 8 8 8 8
          8 8 8 8 8 8
          8 8 8 8 8 8
          8 8 8 8 8 8
          8 8 8 8 8 8
          8 8 8 8 8 8
          8 8 8 8 8 8
          8 8 8 8 8 8
          8 8 8 8 8 8
          8 8 8 8 8 8
          8 8 8 8 8 8
          8 8 8 8 8 8
          8 8 8 8 8 8
          8 8 8 8 8 8
          8 8 8 8 8 8
          8 8 8 8 8 8
          8 8 8 8 8 8
          8 8 8 8 8 8
          8 8 8 8 8 8
          8 8 8 8 8 8
          8 8 8 8 8 8
          8 8 8 8 8 8
          8 8 8 8 8 8
          8 8 8 8 8 8
          8 8 8 8 8 8
          8 8 8 8 8 8
          8 8 8 8 8 8
          8 8 8 8 8 8
          8 8 8 8 8 8
          8 8 8 8 8 8
          8 8 8 8 8 8
          8 8 8 8 8 8
          8 8 8 8 8 8
          8 8 8 8 8 8
          8 8 8 8 8 8
          8 8 8 8 8 8
          8 8 8 8 8 8
          8 8 8 8 8 8
          8 8 8 8 8 8
          8 8 8 8 8 8
          8 8 8 8 8 8
          8 8 8 8 8 8
          8 8 8 8 8 8
          8 8 8 8 8 8
          8 8 8 8 8 8
          8 8 8 8 8 8
          8 8 8 8 8 8
          8 8 8 8 8 8
          8 8 8 8 8 8
          8 8 8 8 8 8
          8 8 8 8 8 8
          8 8 8 8 8 8
          8 8 8 8 8 8
          8 8 8 8 8 8
          8 8 8 8 8 8
          8 8 8 8 8 8
          8 8 8 8 8 8
          8 8 8 8 8 8
          8 8 8 8 8 8
          8 8 8 8 8 8
          8 8 8 8 8 8
          8 8 8 8 8 8
          8 8 8 8 8 8
          8 8 8 8 8 8
          8 8 8 8 8 8
          8 8 8 8 8 8
          8 8 8 8 8 8
          8 8 8 8 8 8
          8 8 8 8 8 8
          8 8 8 8 8 8
          8 8 8 8 8 8
          8 8 8 8 8 8
          8 8 8 8 8 8
          8 8 8 8 8 8
          8 8 8 8 8 8
          8 8 8 8 8 8
          8 8 8 8 8 8
          8 8 8 8 8 8
          8 8 8 8 8 8
          8 8 8 8 8 8
          8 8 8 8 8 8
          8 8 8 8 8 8
          8 8 8 8 8 8
          8 8 8 8 8 8
          8 8 8 8 8 8
          8 8 8 8 8 8
          8 8 8 8 8 8
          8 8 8 8 8 8
          8 8 8 8 8 8
          8 8 8 8 8 8
          8 8 8 8 8 8
          8 8 8 8 8 8
          8 8 8 8 8 8
          8 8 8 8 8 8
          8 8 8 8 8 8
          8 8 8 8 8 8
          8 8 8 8 8 8
          8 8 8 8 8 8
          8 8 8 8 8 8
          8 8 8 8 8 8
          8 8 8 8 8 8
          8 8 8 8 8 8
          8 8 8 8 8 8
          8 8 8 8 8 8
          8 8 8 8 8 8
          8 8 8 8 8 8
          8 8 8 8 8 8
          8 8 8 8 8 8
          8 8 8 8 8 8
          8 8 8 8 8 8
          8 8 8 8 8 8
          8 8 8 8 8 8
          8 8 8 8 8 8
          8 8 8 8 8 8
          8 8 8 8 8 8
          8 8 8 8 8 8
          8 8 8 8 8 8
          8 8 8 8 8 8
          8 8 8 8 8 8
          8 8 8 8 8 8
          8 8 8 8 8 8
          8 8 8 8 8 8
          8 8 8 8 8 8
          8 8 8 8 8 8
          8 8 8 8 8 8
          8 8 8 8 8 8
          8 8 8 8 8 8
          8 8 8 8 8 8
          8 8 8 8 8 8
          8 8 8 8 8 8
          8 8 8 8 8 8
          8 8 8 8 8 8
          8 8 8 8 8 8
          8 8 8 8 8 8
          8 8 8 8 8 8
          8 8 8 8 8 8
          8 8 8 8 8 8
          8 8 8 8 8 8
          8 8 8 8 8 8
          8 8 8 8 8 8
          8 8 8 8 8 8
          8 8 8 8 8 8
          8 8 8 8 8 8
          8 8 8 8 8 8
          8 8 8 8 8 8
          8 8 8 8 8 8
          8 8 8 8 8 8
          8 8 8 8 8 8
          8 8 8 8 8 8
          8 8 8 8 8 8
          8 8 8 8 8 8
          8 8 8 8 8 8
          8 8 8 8 8 8
          8 8 8 8 8 8
          8 8 8 8 8 8
          8 8 8 8 8 8
          8 8 8 8 8 8
          8 8 8 8 8 8
          8 8 8 8 8 8
          8 8 8 8 8 8
          8 8 8 8 8 8
          8 8 8 8 8 8
          8 8 8 8 8 8
          8 8 8 8 8 8
          8 8 8 8 8 8
          8 8 8 8 8 8
          8 8 8 8 8 8
          8 8 8 8 8 8
          8 8 8 8 8 8
          8 8 8 8 8 8
          8 8 8 8 8 8
          8 8 8 8 8 8
          8 8 8 8 8 8
          8 8 8 8 8 8
          8 8 8 8 8 8
          8 8 8 8 8 8
          8 8 8 8 8 8
          8 8 8 8 8 8
          8 8 8 8 8 8
          8 8 8 8 8 8
          8 8 8 8 8 8
          8 8 8 8 8 8
          8 8 8 8 8 8
          8 8 8 8 8 8
          8 8 8 8 8 8
          8 8 8 8 8 8
          8 8 8 8 8 8
          8 8 8 8 8 8
          8 8 8 8 8 8
          8 8 8 8 8 8
          8 8 8 8 8 8
          8 8 8 8 8 8
          8 8 8 8 8 8
          8 8 8 8 8 8
          8 8 8 8 8 8
          8 8 8 8 8 8
          8 8 8 8 8 8
          8 8 8 8 8 8
          8 8 8 8 8 8
          8 8 8 8 8 8
          8 8 8 8 8 8
          8 8 8 8 8 8
          8 8 8 8 8 8
          8 8 8 8 8 8
          8 8 8 8 8 8
          8 8 8 8 8 8
          8 8 8 8 8 8
          8 8 8 8 8 8
          8 8 8 8 8 8
          8 8 8 8 8 8
          8 8 8 8 8 8
          8 8 8 8 8 8
          8 8 8 8 8 8
          8 8 8 8 8 8
          8 8 8 8 8 8
          8 8 8 8 8 8
          8 8 8 8 8 8
          8 8 8 8 8 8
          8 8 8 8 8 8
          8 8 8 8 8 8
          8 8 8 8 8 8
          8 8 8 8 8 8
          8 8 8 8 8 8
          8 8 8 8 8 8
          8 8 8 8 8 8
          8 8 8 8 8 8
          8 8 8 8 8 8
          8 8 8 8 8 8
          8 8 8 8 8 8
          8 8 8 8 8 8
          8 8 8 8 8 8
          8 8 8 8 8 8
          8 8 8 8 8 8
          8 8 8 8 8 8
          8 8 8 8 8 8
          8 8 8 8 8 8
          8 8 8 8 8 8
          8 8 8 8 8 8
          8 8 8 8 8 8
          8 8 8 8 8 8
          8 8 8 8 8 8
          8 8 8 8 8 8
          8 8 8 8 8 8
          8 8 8 8 8 8
          8 8 8 8 8 8
          8 8 8 8 8 8
          8 8 8 8 8 8
          8 8 8 8 8 8
          8 8 8 8 8 8
          8 8 8 8 8 8
          8 8 8 8 8 8
          8 8 8 8 8 8
          8 8 8 8 8 8
          8 8 8 8 8 8
          8 8 8 8 8 8
          8 8 8 8 8 8
          8 8 8 8 8 8
          8 8 8 8 8 8
          8 8 8 8 8 8
          8 8 8 8 8 8
          8 8 8 8 8 8
          8 8 8 8 8 8
          8 8 8 8 8 8
          8 8 8 8 8 8
          8 8 8 8 8 8
          8 8 8 8 8 8
          8 8 8 8 8 8
          8 8 8 8 8 8
          8 8 8 8 8 8
          8 8 8 8 8 8
          8 8 8 8 8 8
          8 8 8 8 8 8
          8 8 8 8 8 8
          8 8 8 8 8 8
          8 8 8 8 8 8
          8 8 8 8 8 8
          8 8 8 8 8 8
          8 8 8 8 8 8
          8 8 8 8 8 8
          8 8 8 8 8 8
          8 8 8 8 8 8
          8 8 8 8 8 8
          8 8 8 8 8 8
          8 8 8 8 8 8
          8 8 8 8 8 8
          8 8 8 8 8 8
          8 8 8 8 8 8
          8 8 8 8 8 8
          8 8 8 8 8 8
          8 8 8 8 8 8
          8 8 8 8 8 8
          8 8 8 8 8 8
          8 8 8 8 8 8
          8 8 8 8 8 8
          8 8 8 8 8 8
          8 8 8 8 8 8
          8 8 8 8 8 8
          8 8 8 8 8 8
          8 8 8 8 8 8
          8 8 8 8 8 8
          8 8 8 8 8 8
          8 8 8 8 8 8
          8 8 8 8 8 8
          8 8 8 8 8 8
          8 8 8 8 8 8
          8 8 8 8 8 8
          8 8 8 8 8 8
          8 8 8 8 8 8
          8 8 8 8 8 8
          8 8 8 8 8 8
          8 8 8 8 8 8
          8 8 8 8 8 8
          8 8 8 8 8 8
          8 8 8 8 8 8
          8 8 8 8 8 8
          8 8 8 8 8 8
          8 8 8 8 8 8
          8 8 8 8 8 8
          8 8 8 8 8 8
          8 8 8 8 8 8
          8 8 8 8 8 8
          8 8 8 8 8 8
          8 8 8 8 8 8
          8 8 8 8 8 8
          8 8 8 8 8 8
          8 8 8 8 8 8
          8 8 8 8 8 8
          8 8 8 8 8 8
          8 8 8 8 8 8
          8 8 8 8 8 8
          8 8 8 8 8 8
          8 8 8 8 8 8
          8 8 8 8 8 8
          8 8 8 8 8 8
          8 8 8 8 8 8
          8 8 8 8 8 8
          8 8 8 8 8 8
          8 8 8 8 8 8
          8 8 8 8 8 8
          8 8 8 8 8 8
          8 8 8 8 8 8
          8 8 8 8 8 8
          8 8 8 8 8 8
          8 8 8 8 8 8
          8 8 8 8 8 8
          8 8 8 8 8 8
          8 8 8 8 8 8
          8 8 8 8 8 8
          8 8 8 8 8 8
          8 8 8 8 8 8
          8 8 8 8 8 8
          8 8 8 8 8 8
          8 8 8 8 8 8
          8 8 8 8 8 8
          8 8 8 8 8 8
          8 8 8 8 8 8
          8 8 8 8 8 8
          8 8 8 8 8 8
          8 8 8 8 8 8
          8 8 8 8 8 8
          8 8 8 8 8 8
          8 8 8 8 8 8
          8 8 8 8 8 8
          8 8 8 8 8 8
          8 8 8 8 8 8
          8 8 8 8 8 8
          8 8 8 8 8 8
          8 8 8 8 8 8
          8 8 8 8 8 8
          8 8 8 8 8 8
          8 8 8 8 8 8
          8 8 8 8 8 8
          8 8 8 8 8 8
          8 8 8
        </DataArray>
        <DataArray type="UInt64" Name="bulk_element_ids" format="ascii" RangeMin="18600" RangeMax="20924">
          18600 18601 18602 18603 18604 18605
          18606 18607 18608 18609 18610 18611
          18612 18613 18614 18615 18616 18617
          18618 18619 18620 18621 18622 18623
          18624 18625 18626 18627 18628 18629
          18630 18631 18632 18633 18634 18635
          18636 18637 18638 18639 18640 18641
          18642 18643 18644 18645 18646 18647
          18648 18649 18650 18651 18652 18653
          18654 18655 18656 18657 18658 18659
          18660 18661 18662 18663 18664 18665
          18666 18667 18668 18669 18670 18671
          18672 18673 18674 18675 18676 18677
          18678 18679 18680 18681 18682 18683
          18684 18685 18686 18687 18688 18689
          18690 18691 18692 18693 18694 18695
          18696 18697 18698 18699 18700 18701
          18702 18703 18704 18705 18706 18707
          18708 18709 18710 18711 18712 18713
          18714 18715 18716 18717 18718 18719
          18720 18721 18722 18723 18724 18725
          18726 18727 18728 18729 18730 18731
          18732 18733 18734 18735 18736 18737
          18738 18739 18740 18741 18742 18743
          18744 18745 18746 18747 18748 18749
          18750 18751 18752 18753 18754 18755
          18756 18757 18758 18759 18760 18761
          18762 18763 18764 18765 18766 18767
          18768 18769 18770 18771 18772 18773
          18774 18775 18776 18777 18778 18779
          18780 18781 18782 18783 18784 18785
          18786 18787 18788 18789 18790 18791
          18792 18793 18794 18795 18796 18797
          18798 18799 18800 18801 18802 18803
          18804 18805 18806 18807 18808 18809
          18810 18811 18812 18813 18814 18815
          18816 18817 18818 18819 18820 18821
          18822 18823 18824 18825 18826 18827
          18828 18829 18830 18831 18832 18833
          18834 18835 18836 18837 18838 18839
          18840 18841 18842 18843 18844 18845
          18846 18847 18848 18849 18850 18851
          18852 18853 18854 18855 18856 18857
          18858 18859 18860 18861 18862 18863
          18864 18865 18866 18867 18868 18869
          18870 18871 18872 18873 18874 18875
          18876 18877 18878 18879 18880 18881
          18882 18883 18884 18885 18886 18887
          18888 18889 18890 18891 18892 18893
          18894 18895 18896 18897 18898 18899
          18900 18901 18902 18903 18904 18905
          18906 18907 18908 18909 18910 18911
          18912 18913 18914 18915 18916 18917
          18918 18919 18920 18921 18922 18923
          18924 18925 18926 18927 18928 18929
          18930 18931 18932 18933 18934 18935
          18936 18937 18938 18939 18940 18941
          18942 18943 18944 18945 18946 18947
          18948 18949 18950 18951 18952 18953
          18954 18955 18956 18957 18958 18959
          18960 18961 18962 18963 18964 18965
          18966 18967 18968 18969 18970 18971
          18972 18973 18974 18975 18976 18977
          18978 18979 18980 18981 18982 18983
          18984 18985 18986 18987 18988 18989
          18990 18991 18992 18993 18994 18995
          18996 18997 18998 18999 19000 19001
          19002 19003 19004 19005 19006 19007
          19008 19009 19010 19011 19012 19013
          19014 19015 19016 19017 19018 19019
          19020 19021 19022 19023 19024 19025
          19026 19027 19028 19029 19030 19031
          19032 19033 19034 19035 19036 19037
          19038 19039 19040 19041 19042 19043
          19044 19045 19046 19047 19048 19049
          19050 19051 19052 19053 19054 19055
          19056 19057 19058 19059 19060 19061
          19062 19063 19064 19065 19066 19067
          19068 19069 19070 19071 19072 19073
          19074 19075 19076 19077 19078 19079
          19080 19081 19082 19083 19084 19085
          19086 19087 19088 19089 19090 19091
          19092 19093 19094 19095 19096 19097
          19098 19099 19100 19101 19102 19103
          19104 19105 19106 19107 19108 19109
          19110 19111 19112 19113 19114 19115
          19116 19117 19118 19119 19120 19121
          19122 19123 19124 19125 19126 19127
          19128 19129 19130 19131 19132 19133
          19134 19135 19136 19137 19138 19139
          19140 19141 19142 19143 19144 19145
          19146 19147 19148 19149 19150 19151
          19152 19153 19154 19155 19156 19157
          19158 19159 19160 19161 19162 19163
          19164 19165 19166 19167 19168 19169
          19170 19171 19172 19173 19174 19175
          19176 19177 19178 19179 19180 19181
          19182 19183 19184 19185 19186 19187
          19188 19189 19190 19191 19192 19193
          19194 19195 19196 19197 19198 19199
          19200 19201 19202 19203 19204 19205
          19206 19207 19208 19209 19210 19211
          19212 19213 19214 19215 19216 19217
          19218 19219 19220 19221 19222 19223
          19224 19225 19226 19227 19228 19229
          19230 19231 19232 19233 19234 19235
          19236 19237 19238 19239 19240 19241
          19242 19243 19244 19245 19246 19247
          19248 19249 19250 19251 19252 19253
          19254 19255 19256 19257 19258 19259
          19260 19261 19262 19263 19264 19265
          19266 19267 19268 19269 19270 19271
          19272 19273 19274 19275 19276 19277
          19278 19279 19280 19281 19282 19283
          19284 19285 19286 19287 19288 19289
          19290 19291 19292 19293 19294 19295
          19296 19297 19298 19299 19300 19301
          19302 19303 19304 19305 19306 19307
          19308 19309 19310 19311 19312 19313
          19314 19315 19316 19317 19318 19319
          19320 19321 19322 19323 19324 19325
          19326 19327 19328 19329 19330 19331
          19332 19333 19334 19335 19336 19337
          19338 19339 19340 19341 19342 19343
          19344 19345 19346 19347 19348 19349
          19350 19351 19352 19353 19354 19355
          19356 19357 19358 19359 19360 19361
          19362 19363 19364 19365 19366 19367
          19368 19369 19370 19371 19372 19373
          19374 19375 19376 19377 19378 19379
          19380 19381 19382 19383 19384 19385
          19386 19387 19388 19389 19390 19391
          19392 19393 19394 19395 19396 19397
          19398 19399 19400 19401 19402 19403
          19404 19405 19406 19407 19408 19409
          19410 19411 19412 19413 19414 19415
          19416 19417 19418 19419 19420 19421
          19422 19423 19424 19425 19426 19427
          19428 19429 19430 19431 19432 19433
          19434 19435 19436 19437 19438 19439
          19440 19441 19442 19443 19444 19445
          19446 19447 19448 19449 19450 19451
          19452 19453 19454 19455 19456 19457
          19458 19459 19460 19461 19462 19463
          19464 19465 19466 19467 19468 19469
          19470 19471 19472 19473 19474 19475
          19476 19477 19478 19479 19480 19481
          19482 19483 19484 19485 19486 19487
          19488 19489 19490 19491 19492 19493
          19494 19495 19496 19497 19498 19499
          19500 19501 19502 19503 19504 19505
          19506 19507 19508 19509 19510 19511
          19512 19513 19514 19515 19516 19517
          19518 19519 19520 19521 19522 19523
          19524 19525 19526 19527 19528 19529
          19530 19531 19532 19533 19534 19535
          19536 19537 19538 19539 19540 19541
          19542 19543 19544 19545 19546 19547
          19548 19549 19550 19551 19552 19553
          19554 19555 19556 19557 19558 19559
          19560 19561 19562 19563 19564 19565
          19566 19567 19568 19569 19570 19571
          19572 19573 19574 19575 19576 19577
          19578 19579 19580 19581 19582 19583
          19584 19585 19586 19587 19588 19589
          19590 19591 19592 19593 19594 19595
          19596 19597 19598 19599 19600 19601
          19602 19603 19604 19605 19606 19607
          19608 19609 19610 19611 19612 19613
          19614 19615 19616 19617 19618 19619
          19620 19621 19622 19623 19624 19625
          19626 19627 19628 19629 19630 19631
          19632 19633 19634 19635 19636 19637
          19638 19639 19640 19641 19642 19643
          19644 19645 19646 19647 19648 19649
          19650 19651 19652 19653 19654 19655
          19656 19657 19658 19659 19660 19661
          19662 19663 19664 19665 19666 19667
          19668 19669 19670 19671 19672 19673
          19674 19675 19676 19677 19678 19679
          19680 19681 19682 19683 19684 19685
          19686 19687 19688 19689 19690 19691
          19692 19693 19694 19695 19696 19697
          19698 19699 19700 19701 19702 19703
          19704 19705 19706 19707 19708 19709
          19710 19711 19712 19713 19714 19715
          19716 19717 19718 19719 19720 19721
          19722 19723 19724 19725 19726 19727
          19728 19729 19730 19731 19732 19733
          19734 19735 19736 19737 19738 19739
          19740 19741 19742 19743 19744 19745
          19746 19747 19748 19749 19750 19751
          19752 19753 19754 19755 19756 19757
          19758 19759 19760 19761 19762 19763
          19764 19765 19766 19767 19768 19769
          19770 19771 19772 19773 19774 19775
          19776 19777 19778 19779 19780 19781
          19782 19783 19784 19785 19786 19787
          19788 19789 19790 19791 19792 19793
          19794 19795 19796 19797 19798 19799
          19800 19801 19802 19803 19804 19805
          19806 19807 19808 19809 19810 19811
          19812 19813 19814 19815 19816 19817
          19818 19819 19820 19821 19822 19823
          19824 19825 19826 19827 19828 19829
          19830 19831 19832 19833 19834 19835
          19836 19837 19838 19839 19840 19841
          19842 19843 19844 19845 19846 19847
          19848 19849 19850 19851 19852 19853
          19854 19855 19856 19857 19858 19859
          19860 19861 19862 19863 19864 19865
          19866 19867 19868 19869 19870 19871
          19872 19873 19874 19875 19876 19877
          19878 19879 19880 19881 19882 19883
          19884 19885 19886 19887 19888 19889
          19890 19891 19892 19893 19894 19895
          19896 19897 19898 19899 19900 19901
          19902 19903 19904 19905 19906 19907
          19908 19909 19910 19911 19912 19913
          19914 19915 19916 19917 19918 19919
          19920 19921 19922 19923 19924 19925
          19926 19927 19928 19929 19930 19931
          19932 19933 19934 19935 19936 19937
          19938 19939 19940 19941 19942 19943
          19944 19945 19946 19947 19948 19949
          19950 19951 19952 19953 19954 19955